100
Lattice="12.59911195 9.6e-07 1.45482123 -0.83993799 11.87855545 -1.45481924 -8e-07 -1.18e-06 11.63855671" Properties=species:S:1:pos:R:3:REF_forces:R:3 REF_energy=-796.13168527 config_type=mp-6985 data_type=rattle REF_stress="0.028476013341911827 -0.0008211198334320372 -0.0003914868759517977 -0.0008211198334320372 0.030153334690327296 -0.0001597318651873815 -0.0003914868759517977 -0.0001597318651873815 0.028749681640592318" pbc="T T T"
Ti       1.68829060      11.86498374       2.92250928      -0.03062053       0.08641987      -0.05736014
Ti       5.04537915       0.00579433       5.81900277      -0.02779293      -0.05296476       0.01395286
Ti       6.71571322      11.87546754       5.83315730       0.02493949      -0.00067748      -0.05992761
Ti      10.09645401       0.01054377       8.72328547      -0.07460289      -0.08395087       0.03863338
Ti       0.00446110       0.01999286       8.73130757       0.02016783      -0.04491442      -0.01336453
Ti       1.68997757      11.87634072       8.72290490      -0.04704117       0.00119173       0.04477686
Ti       4.19328420      11.87771811      10.18272934       0.02595535       0.02822700      -0.01960020
Ti       3.36013561       2.38722716       5.81517482       0.01936626      -0.04828178      -0.00326826
Ti       5.87660217       2.38268867       7.26796838       0.00109567      -0.03589551       0.00682713
Ti       8.39543922       2.36716953       8.73502890       0.01061129       0.01820729      -0.01659931
Ti      10.92155587       2.38387454      10.18361787      -0.02208569      -0.01315248       0.02403682
Ti       0.83826644       2.38152467      10.16758733       0.00495981      -0.02767393       0.07038508
Ti       3.35592986       2.38806424      11.63415209      -0.00760425      -0.04124218       0.00664675
Ti       5.87648146       2.38791749       1.44586789      -0.01185326      -0.04686153       0.03662591
Ti       4.20808014       4.74577852       7.28011188      -0.05554729       0.02494687      -0.01070957
Ti       6.72029366       4.74123053       8.71629579      -0.00146807       0.02410175       0.05777414
Ti       9.22975062       4.73836989      10.18320547       0.02256943       0.05546485       0.00067341
Ti      11.76443315       4.73738713      11.64279902      -0.06903426       0.05261225       0.00535313
Ti       1.67293056       4.76033407      -0.01138598       0.00907796      -0.02467836       0.06496220
Ti       4.19184086       4.73814132       1.44986367       0.00315245       0.07070023       0.01599910
Ti       6.71639907       4.75972924       2.92338511       0.02230478      -0.03399447      -0.09182796
Ti       5.03718998       7.13222583       8.73172210       0.02840328       0.00075431       0.02827299
Ti       7.56751966       7.13145309      10.19017357      -0.02601581      -0.03303734       0.02381481
Ti      10.09319025       7.13318826      11.64585301      -0.08260502      -0.02124829      -0.04160022
Ti      -0.01810957       7.14567589      -0.00412834       0.07061119      -0.08561992       0.03382017
Ti       2.50965343       7.13006433       1.45061899       0.02157655       0.02139136       0.01120457
Ti       5.02905422       7.11674130       2.90543929       0.03151691       0.01264374       0.05127643
Ti       7.54745231       7.12157915       4.37534516       0.03180933       0.06449317      -0.04331791
Ti       5.89223389       9.50373741      10.18251034      -0.05721916      -0.01355472       0.00043439
Ti       8.39926696       9.52018714       0.00211329       0.00049260      -0.06994114       0.01304958
Ti      10.93632082       9.49868810       1.45884259      -0.08780739       0.02638334      -0.01781149
Ti       0.84016554       9.51098460       1.44738020      -0.01872387      -0.01731685       0.02322187
Ti       3.33895998       9.49322136       2.91354457       0.09129087       0.03019377      -0.04030486
Ti       5.86796489       9.50434357       4.34716679       0.02468651      -0.02621883       0.08636691
Ti       8.40095402       9.49774035       5.84581271      -0.00787085       0.03287633      -0.06775959
Ti       2.53813062       0.01085328       7.26146631      -0.07265238      -0.05411928       0.07059062
Ti       4.18914108      11.86890713       7.27694431       0.04028743       0.05728098       0.00861602
Ti       6.72751037      11.85832935       8.73449827      -0.03482907       0.06856654      -0.01807429
Ti       9.22983135      11.87757315      10.19678617       0.05344259       0.00861495      -0.07880902
Ti      11.75365939      11.87322258       0.00728057       0.06125232       0.02625512      -0.01998340
Ti       2.52766442       0.01134766       1.45802684      -0.05631218      -0.02520863      -0.00088292
Ti       5.05230919       0.00784261       2.93196414      -0.06818732      -0.05118487      -0.09400279
Ti       3.35414403       2.37819857       8.73386356      -0.00334685       0.01198684      -0.01575100
Ti       5.87287759       2.37708229      10.19092381       0.00512214       0.00338024      -0.02547021
Ti       8.38621216       2.36980129      11.63207442       0.04895817       0.01426046       0.02642346
Ti      10.90154890       2.36833720       1.45651256       0.06857487       0.01469552       0.01032332
Ti       0.83240073       2.38680724       1.45053197       0.00320902      -0.03482907      -0.00729232
Ti       3.36413447       2.37147530       2.91819111      -0.02467836      -0.00206585      -0.04199594
Ti       5.87935778       2.35945475       4.35276382       0.00393255       0.07146162       0.05093119
Ti       4.18879770       4.75409464      10.19096547       0.04564136       0.00589073      -0.02163256
Ti       6.73080015       4.75505640      11.65346126      -0.07604050       0.00977002      -0.07749187
Ti       9.23831583       4.73888061       1.44243495       0.01048473       0.04854641       0.05014766
Ti      11.75482056       4.73659786       2.92787412      -0.01173729       0.07864422      -0.05446660
Ti       1.67372769       4.76946280       2.90941468       0.00818264      -0.08150897       0.02370860
Ti       4.19936300       4.74322385       4.36409613      -0.00839327       0.04673626       0.01855347
Ti       6.70102803       4.75590595       5.80225681       0.05381582      -0.02040341       0.09275211
Ti       5.04103362       7.14187424       0.00925738      -0.00046467      -0.07120852      -0.01175656
Ti       7.56979928       7.13736831       1.45918045      -0.01770431      -0.02908953       0.00368512
Ti      10.08284845       7.12537662       2.90924415      -0.03258089      -0.03525142       0.02378548
Ti       0.00533880       7.12727357       2.92494651      -0.01515984       0.02419878      -0.08001581
Ti       2.52657608       7.12403128       4.36264499      -0.02160622      -0.01748209       0.01591993
Ti       5.03639248       7.12602801       5.84418689      -0.00504902      -0.00387435      -0.08908671
Ti       7.55783441       7.13186331       7.27982003      -0.01559329      -0.04375967       0.00651724
Ti       5.88112830       9.49996186       1.45970844      -0.01522186       0.01663779      -0.04108589
Ti       8.39356361       9.51488829       2.89484441       0.03544053      -0.06357052       0.08618376
Ti      10.90640864       9.49754995       4.36245588       0.04917719       0.03259808       0.02405296
Ti       0.84850528       9.50620081       4.34806532      -0.05377424      -0.04228450       0.05987008
Ti       3.35332466       9.49117202       5.82316575       0.00769034       0.05557547      -0.05472322
Ti       5.86642748       9.51748559       7.28219641       0.04297403      -0.08730384      -0.04422854
Ti       8.39886073       9.48774782       8.74039304       0.02237619       0.07186459      -0.05214407
Ti       7.55858990       0.01146214       1.45043231      -0.01972735      -0.04796749       0.03948333
Ti       9.23772773      11.87777491       1.44495143       0.01270820       0.00059973       0.05329568
Ti      12.57531181       0.00672820       4.37501736       0.09951233      -0.01800769      -0.01793269
Ti       8.40934601       2.36013386       2.90927820      -0.05345700       0.06178964      -0.00820389
Ti      10.91587478       2.38043344       4.37025987      -0.00511847      -0.02918049      -0.00814589
Ti       0.83117874       2.37733926       4.35340596       0.01661849       0.00256851       0.02900944
Ti       9.24065459       4.73889908       4.35725481      -0.02499803       0.05847772       0.01221150
Ti      11.74875716       4.76104018       5.83075989       0.04268159      -0.06717703      -0.02842895
Ti       1.67123429       4.75406362       5.83496465       0.00574889       0.00084904      -0.07912466
Ti      10.08127102       7.12747099       5.82394609      -0.03934239      -0.01427081       0.00592412
Ti      -0.01867639       7.11367744       5.82709176       0.06946779       0.05494523      -0.01454676
Ti       2.51770820       7.10332547       7.28741723      -0.01251968       0.08189665      -0.01311312
Ti      10.93055667       9.50004748       7.29945277      -0.05206092       0.00303614      -0.09839154
Ti       0.82868175       9.50468624       7.29356532       0.06024826       0.02210259      -0.11440433
Ti       3.34934282       9.49381684       8.70199985       0.05370163       0.01456476       0.09264085
Ti       6.71543209      11.86928494       2.89861237       0.03964579       0.02979226       0.05705592
Ti       9.23194047      11.87646191       4.36692082       0.00316354      -0.00318813       0.01995996
Ti      -0.83507632      11.85129963       4.36726818      -0.00878938       0.10876883      -0.01497981
Ti       8.39505956       2.37761820       5.84141568      -0.01183690      -0.02110007      -0.04926221
Ti      10.91844226       2.36224315       7.29181158       0.00490068       0.02007267      -0.07599297
Ti       0.83989377       2.40395833       7.26369493      -0.01427635      -0.13272622       0.02591377
Ti       9.23863904       4.74316782       7.26809027      -0.03552147       0.02581141       0.01194839
Ti      11.74527025       4.74036455       8.72250831       0.01461605       0.05204276       0.04817748
Ti       1.65567571       4.74290924       8.73470560       0.08050173       0.02122403      -0.02710417
Ti      10.08289969       7.14887989       8.72286543      -0.02264080      -0.10065597       0.01158904
Ti      -0.01113591       7.13994990       8.71900499       0.04862255      -0.06931418       0.03736951
Ti       2.51862211       7.14111098      10.18885089      -0.00785404      -0.05241850      -0.02686270
Ti      10.94351191       9.49519147      10.17977019      -0.10279883       0.05913424       0.05528807
Ti       0.84265419       9.48644619      10.16606622       0.00875852       0.08428329       0.07179314
Ti       3.36178458       9.50175688      -0.02628259      -0.01387993       0.02084396       0.08700935
100
Lattice="12.25026473 9.3e-07 1.41453979 -0.81668158 11.54965918 -1.41453786 -7.8e-07 -1.15e-06 11.31630557" Properties=species:S:1:pos:R:3:REF_forces:R:3 REF_energy=-796.20712467 config_type=mp-6985 data_type=rattle REF_stress="-0.031965947084178055 -0.0009730286472546185 -5.8190157557940073e-05 -0.0009730286472546185 -0.029936800036471985 9.178622886568586e-05 -5.8190157557940073e-05 9.178622886568586e-05 -0.030575974636016863" pbc="T T T"
Ti       2.45031647       0.00260296       4.23966344      -0.01671087      -0.05455904       0.02410647
Ti       4.08138099      11.53694275       4.21764673       0.02678547       0.06132597       0.12497251
Ti       6.53637363      11.54092606       5.66209480      -0.04354100       0.07566527       0.05232922
Ti       8.99288076      11.54950233       7.07528857      -0.07954363      -0.02475002      -0.03387318
Ti      12.23553102       0.00801934       9.88426140       0.07432862      -0.04374124       0.07975790
Ti       1.62842022      11.53957242       8.48748227      -0.00972786       0.06303561      -0.03274385
Ti       4.08220856      11.53418977       9.89569892      -0.01644911       0.08693379       0.00820214
Ti       3.25279933       2.30365464       5.66147964       0.02762617       0.02908593      -0.04157829
Ti       5.70137661       2.32663460       7.06769633       0.06152380      -0.17108691      -0.00261638
Ti       8.17357440       2.33241263       8.47068767      -0.04097774      -0.10896994       0.06077841
Ti      10.61215208       2.30691255       9.89245859      -0.00037233      -0.02429683       0.13633751
Ti       0.82779404       2.30803409       9.91455164      -0.08385222      -0.01225563      -0.05049449
Ti       3.26119623       2.31347405      11.31190328       0.06552223      -0.04934168       0.02389755
Ti       5.71254615       2.31221300       1.42032947      -0.02016852      -0.00017673      -0.07842825
Ti       4.07488035       4.61144993       7.06613464       0.02840585       0.06783837       0.05323936
Ti       6.53200625       4.60574366       8.48452459      -0.00854559       0.08381388       0.03420654
Ti       8.99482097       4.60646085       9.89927581      -0.07120552       0.08107873       0.02403200
Ti      11.45121576       4.61394395      11.30722907      -0.09363819       0.01223937       0.08721551
Ti       1.63608771       4.61981816       0.00854143      -0.01217972       0.01251426      -0.02984783
Ti       4.06752252       4.62042436       1.41559750       0.10736536       0.02527353       0.03207201
Ti       6.53256703       4.61272520       2.83111459       0.00285237       0.03347814       0.00605977
Ti       4.91213722       6.93063816       8.48886946      -0.04115426      -0.02839774      -0.00912071
Ti       7.35389732       6.92752606       9.89505585       0.00663493      -0.02886590       0.04844927
Ti       9.80335372       6.94463937      11.32282875      -0.01728542      -0.10434143      -0.01880864
Ti      -0.00232420       6.94164299       0.00920973       0.03170621      -0.08248790      -0.04667067
Ti       2.46221952       6.91096289       1.41675174      -0.05242046       0.09592569      -0.01041246
Ti       4.91827333       6.94722451       2.82847254      -0.09154691      -0.10908166      -0.00984654
Ti       7.34426473       6.92157544       4.24309366       0.05212875       0.03864570       0.04342765
Ti       5.71593930       9.24403734       9.89980170      -0.00477862      -0.03160287      -0.00018216
Ti       8.16023948       9.23726307      -0.00209398       0.01944157      -0.00284705      -0.01936844
Ti      10.61183614       9.22534182       1.41249980      -0.01377844       0.08955964       0.03960459
Ti       0.81101204       9.23623945       1.40423676       0.05217350      -0.00996995       0.06968355
Ti       3.27259762       9.24344559       2.80500568      -0.06587001      -0.01681614       0.09930562
Ti       5.72643192       9.24069245       4.24790338      -0.02891030      -0.01614846       0.00785801
Ti       8.17281827       9.24702831       5.64623963      -0.05158224      -0.03081814       0.07308847
Ti       1.64851663      11.54268222       5.65489102      -0.08176032       0.03605444       0.03635825
Ti       4.09125540      11.53278747       7.08685607      -0.04356874       0.08170685      -0.11300368
Ti       6.52718509      11.54449681       8.51169638       0.05677382       0.02293625      -0.08045540
Ti       8.96770748      11.53160250       9.90554894       0.05498281       0.12062323       0.05038120
Ti      11.42334649      11.54007921      11.31429685       0.02528786       0.05749751       0.01902461
Ti       1.63641046      11.54727355       0.00559747      -0.04623007       0.02495542      -0.06075362
Ti       4.88631699       0.01369827       2.81095264       0.07934217      -0.06589310       0.09873768
Ti       3.26805399       2.32753327       8.48193878      -0.02421647      -0.10330718       0.04757901
Ti       5.72657137       2.29932111       9.88809125      -0.04827805       0.04624553       0.07313052
Ti       8.14841682       2.30475182      11.33258084       0.10804720       0.02987876      -0.08634169
Ti      10.62012173       2.31691795       1.44447602      -0.02859649      -0.01838611      -0.14444797
Ti       0.81896909       2.30714031       1.41686034       0.00838121       0.00112474       0.01455042
Ti       3.27655925       2.31016420       2.83233817      -0.08019747       0.01751747       0.00845268
Ti       5.71400618       2.30905619       4.25832713      -0.04720107       0.03027934      -0.05648563
Ti       4.07870423       4.62296142       9.90016572       0.03605332      -0.02936257      -0.00078444
Ti       6.53548348       4.61093645      11.31826541      -0.01486280       0.03558312      -0.00895391
Ti       8.98327124       4.62913300       1.41161109       0.02378577      -0.01465059       0.02031615
Ti      11.44395965       4.63407945       2.83302753      -0.04409252      -0.06673705      -0.01286434
Ti       1.63476882       4.62251980       2.83761048      -0.02114702      -0.02686506       0.01986984
Ti       4.08240693       4.63201185       4.25456614       0.02220780      -0.05053999      -0.06188242
Ti       6.53479168       4.61584921       5.67123743      -0.00908538       0.04829838      -0.05804489
Ti       4.89079412       6.92397671      -0.01138841       0.08054168       0.02426735       0.07069696
Ti       7.34491934       6.94103286       1.41988517       0.03993437      -0.06455159      -0.04066507
Ti       9.80221590       6.93459700       2.84210491      -0.05346436      -0.01343731      -0.00519059
Ti      -0.00421946       6.93456149       2.83420821       0.01473706       0.01167192       0.00573127
Ti       2.44822645       6.92182691       4.22930061       0.03151417       0.07856849       0.08101406
Ti       4.88638975       6.92476971       5.66510365       0.03637080       0.03417665      -0.02717574
Ti       7.35462050       6.94658374       7.06950542       0.00901239      -0.06749598      -0.00680040
Ti       5.72558476       9.23034482       1.42351116      -0.05980629       0.10546767      -0.03278319
Ti       8.16772367       9.25158205       2.82966015      -0.05707406      -0.09394623      -0.01092373
Ti      10.59262764       9.24849432       4.25153145       0.16957613      -0.02911154      -0.06273011
Ti       0.79993150       9.22990336       4.25004948       0.08688735       0.06726464      -0.05287171
Ti       3.27221918       9.25691104       5.67109916      -0.03901401      -0.10705904      -0.13297884
Ti       5.71681901       9.22375135       7.07066072      -0.00066936       0.07702932       0.05022787
Ti       8.16586302       9.24021904       8.50249611      -0.00310415      -0.01118531      -0.08653528
Ti       7.34087894       0.00924715       1.43564074       0.01314399      -0.07494882      -0.02775044
Ti       8.97709407      11.54376376       1.42317160       0.03405637       0.05566089      -0.03373645
Ti      -0.80491204      11.54717733       1.41587220      -0.06247873      -0.00604208      -0.05905608
Ti       8.15400408       2.31752349       2.82312297       0.06758788       0.00499015       0.05325472
Ti      10.61749982       2.30723732       4.25216756      -0.00447697       0.00097085      -0.02908118
Ti       0.81186884       2.30067695       4.24315029       0.01481441       0.03404347       0.02156364
Ti       8.99447356       4.61808119       4.26181383      -0.03686937       0.00588866      -0.12649829
Ti      11.44020446       4.61698047       5.65753546      -0.00457457       0.02154485       0.02358585
Ti       1.63827395       4.63212548       5.67989136      -0.02022055      -0.05524842      -0.05190362
Ti       9.81198371       6.93879778       5.66609819      -0.02788263      -0.05316465      -0.02746521
Ti       0.01188344       6.91684865       5.66802753      -0.01809816       0.02901280      -0.01033064
Ti       2.44960926       6.94161892       7.08812071       0.00789985      -0.02567651      -0.08513490
Ti      10.62097234       9.22751420       7.06445293      -0.03457522       0.07548876       0.05073343
Ti       0.80424541       9.25247099       7.07296545       0.01627138      -0.05089052      -0.02150125
Ti       3.24832202       9.23439238       8.47124399       0.10048965       0.02063698       0.08063772
Ti       7.35223268       0.01501384       4.27463576      -0.03193912      -0.08842525      -0.13855301
Ti       8.99048906      11.54239819       4.23320620      -0.02512705       0.08660611       0.07361954
Ti      12.23819646       0.01021002       7.07444626       0.08339274      -0.04880395       0.00932292
Ti       8.16371542       2.30592585       5.64889618       0.01179505       0.02926274       0.06453645
Ti      10.60425543       2.30781313       7.07591045       0.04382397       0.02599212      -0.00423106
Ti       0.80706046       2.30416339       7.08197146       0.01614387       0.06287250      -0.01108537
Ti       8.97774834       4.62452365       7.04935191       0.04486219       0.03380837       0.13220102
Ti      11.41542292       4.61496580       8.49805436       0.04516068       0.00216753      -0.07762608
Ti       1.63060957       4.63125632       8.49401147       0.00149240      -0.05145515      -0.01929563
Ti       9.81125219       6.95337940       8.49563698      -0.05558026      -0.12912476      -0.00960646
Ti      -0.00336393       6.93163146       8.49129301       0.02268437       0.01305566       0.01039132
Ti       2.45224881       6.93918547       9.90435721      -0.02427081      -0.03852521       0.02191634
Ti      10.62509802       9.23777532       9.90878740      -0.05371386       0.05175490      -0.02514000
Ti       0.81112120       9.24061671       9.90066434       0.03982945       0.01375583       0.01584723
Ti       3.27434451       9.24313853      -0.00042906      -0.03696407      -0.03968493       0.00235544
100
Lattice="12.22109732 9.3e-07 1.41117183 -0.81473709 11.52215989 -1.4111699 -7.8e-07 -1.15e-06 11.28936189" Properties=species:S:1:pos:R:3:REF_forces:R:3 REF_energy=-795.81335504 config_type=mp-6985 data_type=rattle REF_stress="-0.03794088231648724 -0.0009582598884968076 1.6425723393004836e-05 -0.0009582598884968076 -0.03587297479806042 0.00013119634706381056 1.6425723393004836e-05 0.00013119634706381056 -0.03644240177518387" pbc="T T T"
Ti       1.63444924      11.52077701       2.82881800      -0.05124468      -0.05225364      -0.00487980
Ti       4.08893176      11.51981821       4.23117036      -0.02731593       0.02343218       0.00926857
Ti       7.34845015       0.00767426       7.05115746      -0.07280036      -0.09869925       0.04472750
Ti       8.96756586      11.51752567       7.05119545      -0.02801298       0.01374834       0.03826645
Ti      -0.81231801      11.50302625       7.03860235      -0.00787737       0.09390047       0.08771227
Ti       1.62385881      11.51203077       8.47016459       0.01336141       0.03025475      -0.03882255
Ti       4.06462088      11.50803611       9.89284912       0.05595157       0.08080450      -0.04877497
Ti       3.25670164       2.30510699       5.63043393       0.04852839      -0.03553757       0.04845727
Ti       5.69773497       2.30554098       7.04434203       0.00763041       0.01447179       0.02647453
Ti       8.15115526       2.29842543       8.46410568      -0.06710563      -0.00117400       0.00644679
Ti      10.58560053       2.32295468       9.87805816       0.04886618      -0.14864361      -0.01444278
Ti       0.80416254       2.31265647       9.86598340       0.06708090      -0.07553983       0.03698254
Ti       3.26104771       2.28483444      11.27608055      -0.03230141       0.08636783       0.05063371
Ti       5.70514783       2.31181699       1.41288471      -0.02063805      -0.06087854      -0.05974388
Ti       4.07254324       4.60585260       7.04106665      -0.00100038      -0.00043695       0.13710353
Ti       6.51072065       4.60425731       8.47759362       0.00224948       0.01083412      -0.02583349
Ti       8.96557467       4.59123331       9.88143385      -0.01420766       0.11749272      -0.03535028
Ti      11.40250707       4.60209462      11.29548029       0.02334753       0.06318825      -0.02852204
Ti       1.63979076       4.61817686      -0.00839181      -0.04207540      -0.07114878       0.04451845
Ti       4.07060796       4.61217676       1.42092643      -0.00048104      -0.06003971      -0.07518167
Ti       6.51312774       4.60700765       2.81127812       0.03863348       0.03071830       0.04707863
Ti       4.87647792       6.92142077       8.48058477       0.08031631      -0.09324761      -0.09525788
Ti       7.33193924       6.92333087       9.88180923       0.01778378      -0.06291339      -0.03452565
Ti       9.77042759       6.91690952      11.30474376      -0.02131488      -0.02813625      -0.04451159
Ti      -0.00035672       6.92894230      -0.02619716       0.01053574      -0.09714457       0.16594172
Ti       2.45243994       6.91416646       1.40818074      -0.05789296       0.01191805      -0.01197395
Ti       4.88935791       6.89342031       2.82014463      -0.01906828       0.09053878       0.00762940
Ti       7.33623087       6.92807500       4.22832925       0.00894260      -0.11427236       0.02997482
Ti       5.69509525       9.21270979       9.88734673       0.06514100       0.03815100       0.01983954
Ti       8.15068788       9.21243103       0.00513407      -0.06654123       0.06234632       0.02885637
Ti      10.59259056       9.22741509       1.40415146      -0.01404199      -0.03099381       0.02678253
Ti       0.81146521       9.21380668       1.39653560       0.03022087      -0.00469782       0.13977742
Ti       3.26192247       9.22033843       2.82239234      -0.04868007      -0.04010365       0.00348533
Ti       5.70083480       9.20357422       4.22930538       0.01357147       0.09699976       0.02883346
Ti       8.14397283       9.20970523       5.64306945       0.03652754       0.04269789       0.03996047
Ti       2.44825949       0.01886139       7.05759732      -0.00665861      -0.14775350       0.01154439
Ti       4.07627686      11.52141501       7.03666443       0.01409156       0.03853277       0.13015314
Ti       7.33239263       0.00060190       9.90282509      -0.03722061      -0.05644957      -0.11114101
Ti       9.77495359       0.00301517      11.28901605       0.03012452       0.00973714      -0.00427780
Ti      12.20941049       0.01142918       1.41869121       0.10609297      -0.06847260      -0.06278114
Ti       1.63739260      11.51306610       0.01402856      -0.08992179       0.00367342      -0.04699707
Ti       4.87442025       0.00586872       2.84424567       0.11430213      -0.02784060      -0.09767726
Ti       3.24905387       2.29876848       8.46801839       0.05679628       0.04115136      -0.00474197
Ti       5.69814392       2.28892482       9.87887814       0.00983781       0.06207292      -0.02170427
Ti       8.13677494       2.30916748      11.28016877       0.04956267      -0.00999406       0.05811186
Ti      10.60711758       2.29660022       1.40795106      -0.09951001       0.06612338       0.05225808
Ti       0.82287544       2.29212323       1.41344500      -0.02165451       0.06977755      -0.03661846
Ti       3.27203106       2.28835717       2.82418738      -0.04856716       0.10242163      -0.02794170
Ti       5.70577790       2.31225028       4.22114200       0.03852512      -0.00682062       0.07570311
Ti       4.06049499       4.61408270       9.88116217       0.07532878      -0.08610648      -0.01918031
Ti       6.52042379       4.61232783      11.28256267      -0.04972863      -0.02931444       0.03000521
Ti       8.96446160       4.61179535       1.40402801       0.01832495       0.00391662       0.02859599
Ti      11.42501621       4.61360302       2.81042913      -0.07655222      -0.02664660       0.06477737
Ti       1.63604611       4.59911696       2.83021175       0.02167556       0.01852464      -0.04117878
Ti       4.08528592       4.60065708       4.24314521      -0.01783629       0.01232409      -0.05420796
Ti       6.52204716       4.61708452       5.66364995       0.03408654      -0.02785243      -0.10018637
Ti       4.88598668       6.90575898      -0.00889421      -0.00417457       0.00466178       0.06738341
Ti       7.32450187       6.91252544       1.41458303       0.02050327       0.01603715      -0.01021925
Ti       9.77964617       6.92156834       2.82247200       0.03830582      -0.07016212       0.02666029
Ti       0.01453670       6.91064908       2.84954243      -0.03978311      -0.01260740      -0.15987432
Ti       2.45047742       6.90472411       4.22280237       0.03714635       0.03495063       0.06086669
Ti       4.89326492       6.91106114       5.65182186      -0.03302429       0.02717089      -0.00581582
Ti       7.33739197       6.91256750       7.04738446      -0.01054001       0.02940662       0.10632082
Ti       5.68803233       9.21326303       1.41973533       0.07814145       0.03441842      -0.01148582
Ti       8.14954118       9.20527087       2.82407373      -0.01605142       0.08743493      -0.00190755
Ti      10.59547276       9.20888982       4.23504966      -0.03488621      -0.00687115       0.01802259
Ti       0.81532375       9.20629786       4.23708904       0.00641952       0.05252681       0.03341183
Ti       3.26456887       9.22855805       5.65521972      -0.05101184      -0.07965635      -0.07805854
Ti       5.68940372       9.20834940       7.06100268       0.15365262       0.05825598      -0.02306477
Ti       8.15253767       9.22287822       8.50555015      -0.03756233      -0.03375789      -0.17881114
Ti       7.33836728       0.01135616       1.42071117      -0.05128981      -0.06393367      -0.00918684
Ti       8.96865451      11.51900777       1.41876155      -0.07288849       0.03059314      -0.05700168